# vtk DataFile Version 2.0
Really cool data
ASCII
DATASET POLYDATA
POINTS 41 float
0.0 0.0 0
1.0 0.0 0
1.0 1.0 0
0.0 1.0 0
0.4 0.6 0
0.6000000000000001 0.6 0
0.6000000000000001 0.4 0
0.4 0.4 0
0.3333333339476993 0.0 0
0.6666666668798855 0.0 0
0.9999999999999999 0.3333333339476993 0
0.9999999999999999 0.6666666668798855 0
0.666666665875199 1.0 0
0.3333333324876557 0.9999999999999999 0
0.0 0.666666665875199 0
0.0 0.3333333324876557 0
0.5000000002710506 0.6000000000000001 0
0.6000000000000001 0.4999999998048436 0
0.4999999997397916 0.4 0
0.4 0.5000000004119968 0
0.3001509276587329 0.4527818531203234 0
0.301309453077419 0.323646396876384 0
0.4465281331267489 0.2862374114778615 0
0.4527818530607462 0.6998490723195853 0
0.3448796552522086 0.7155810398071476 0
0.7010191167657613 0.5122527938527854 0
0.7152626644100396 0.6496111240017963 0
0.2559451417831188 0.5908497713135259 0
0.5908265660585517 0.7436533115172516 0
0.1706786982488533 0.4197837601871928 0
0.4388429587902759 0.8491210940081352 0
0.1861004551616425 0.1916003483351439 0
0.2067166651938115 0.8121688773874102 0
0.8139139508796005 0.7915377931935373 0
0.3605222002609364 0.1799351408155244 0
0.5478189679800511 0.1494296457804662 0
0.7472938633947416 0.2157168667875169 0
0.7953181407609291 0.3939939874913518 0
0.5752889916175734 0.2819044184556661 0
0.8375856454693884 0.5578992832278425 0
0.6698200187565009 0.3839780110653606 0
POLYGONS 62 248
3 25 17 40
3 27 24 32
3 28 26 33
3 21 29 31
3 24 30 32
3 33 26 39
3 6 18 38
3 19 4 27
3 16 5 28
3 14 27 32
3 12 28 33
3 8 9 35
3 14 15 29
3 12 13 30
3 10 11 39
3 1 10 36
3 9 1 36
3 3 14 32
3 0 8 31
3 2 12 33
3 27 14 29
3 28 12 30
3 11 2 33
3 15 0 31
3 13 3 32
3 37 25 40
3 29 15 31
3 30 13 32
3 20 19 27
3 23 16 28
3 18 22 38
3 11 33 39
3 35 36 38
3 21 20 29
3 24 23 30
3 38 36 40
3 22 35 38
3 7 19 20
3 4 16 23
3 5 17 25
3 26 25 39
3 18 7 22
3 22 34 35
3 7 21 22
3 21 31 34
3 25 37 39
3 37 10 39
3 20 27 29
3 23 28 30
3 34 8 35
3 22 21 34
3 35 9 36
3 4 24 27
3 5 26 28
3 36 10 37
3 6 38 40
3 7 20 21
3 4 23 24
3 5 25 26
3 31 8 34
3 36 37 40
3 17 6 40
CELL_DATA 62
SCALARS maxflow double 1
LOOKUP_TABLE default
601.3625761863898 312.8294835257022 314.4227313326714 359.72333623007364 385.4792012433265 396.2816330024239 602.6501449224052 595.4500406586781 594.5917058049719 326.38475727832554 327.75200865108496 319.4278285215123 319.8302448071014 324.9287019822377 320.8634146663876 172.84244793334832 202.4799817886079 159.33767969295883 155.6084269536297 157.84579088082876 331.5401373106865 331.21572567740355 176.82616218499663 160.20717833442677 175.35833959627524 436.261725472615 285.3385038878454 271.56488291949677 591.6207280945407 591.0006272041438 592.4755584330017 271.11144754103464 448.12936606298234 435.31893901682383 438.39598719919337 394.6337900365041 391.18926730640135 588.6939242172616 588.2662649470162 579.8625189513816 411.9297846594673 584.5839472938671 450.08911229388843 772.189022367684 330.8672859939965 453.32283356200577 305.2635258689413 453.38802008788946 426.59295492412457 283.0031930397833 383.3601603431263 259.89067599202446 758.4149454168139 768.5874118908099 311.54206561021937 941.3658098146617 725.5127292278863 677.3741780648556 680.5616283085714 299.8626546403178 500.09811190027966 764.2410550281875
VECTORS flow float
592.4050555145947 -103.40792154511882 0
-260.0547827967595 173.87868100341635 0
175.68775422622193 260.7594044203275 0
-334.9416903276892 -131.2057266620821 0
-127.22910394838647 363.8776850806926 0
377.52868925850436 120.46253127766926 0
0.0 -602.6501449224052 0
-595.4500406586781 0.0 0
9.025070659129713e-13 594.5917058049719 0
-278.79248417576997 169.71081447784792 0
171.7394628873077 279.15396479720636 0
0.0 -319.4278285215123 0
-319.8302448071014 0.0 0
-1.2643496713885708e-13 324.9287019822377 0
320.8634146663876 0.0 0
172.84244793334832 5.97475647751942e-14 0
0.0 -202.4799817886079 0
-159.33767969295883 0.0 0
0.0 -155.6084269536297 0
0.0 157.84579088082876 0
-331.44292107274117 -8.028245060877225 0
-4.14646529537066 331.1897700134522 0
176.82616218499663 -3.448485954429364e-14 0
-160.20717833442677 0.0 0
6.185230305886531e-14 175.35833959627524 0
431.5012230874081 -64.27275928738504 0
-256.0731246559816 -125.87540121038774 0
-108.90529099698153 248.77122668818186 0
-591.5890511237399 6.122132114512169 0
5.723565320185571 590.9729115244767 0
16.31176567173111 -592.2509718364063 0
248.91725089569132 107.43192818862855 0
159.4884001045826 -418.7879880799961 0
-386.2070914283121 -200.86478336736033 0
-178.89751878652314 400.2333311511935 0
186.89179648095592 -347.5734233894999 0
23.100761989968987 -390.5065910470679 0
-588.6939242172616 0.0 0
-8.859387559524533e-13 588.2662649470162 0
579.8625189513816 0.0 0
388.9417906850807 135.68504320033944 0
0.0 -584.5839472938671 0
-53.12459467130515 -446.94293421700945 0
-305.08925522084644 -709.3633995449361 0
-143.77618628887126 -297.9959214440038 0
450.66799706898786 -48.9892625634713 0
305.0491851564345 -11.437432462451682 0
-450.47609625369626 51.30286018583223 0
59.194008705310836 422.4661152380055 0
-26.22498543267517 -281.78548119051277 0
-205.6907335873139 -323.50631316037743 0
100.03184550433951 -239.86828334022692 0
-622.9291040438732 432.6113275986728 0
449.68239762477424 623.3075893838034 0
255.68687532741933 -177.99629330405435 0
597.268633407286 -727.6261178900925 0
-696.3451418520849 -203.6471548799443 0
-140.6430585024566 662.6124864535178 0
672.2068072143186 106.31151518413196 0
-141.5268356972108 -264.3629445014434 0
444.6397996407791 -228.89641784360128 0
764.2410550281875 0.0 0
POINT_DATA 41
SCALARS temperature float 1
LOOKUP_TABLE default
20.0
20.0
20.0
20.0
120.0
120.0
120.0
120.0
20.0
20.0
20.0
20.0
20.0
20.0
20.0
20.0
120.0
120.0
120.0
120.0
85.42321045527424
70.42830768398743
80.8801276160943
85.4483289224312
70.3895682090963
85.54282381762467
71.32083447252532
69.54266401039881
69.75584262377905
52.110711673110664
48.83816887084511
37.53801694599956
39.37514928579302
39.35581288360529
50.244786976929895
48.07763956964299
45.69314544625411
57.13637441483311
78.13510627506555
50.654602579723104
88.6121618843788