# vtk DataFile Version 2.0
Really cool data
ASCII
DATASET POLYDATA
POINTS 20 float
0.0 0.0 0
1.0 0.0 0
1.0 1.0 0
0.0 1.0 0
0.2 0.8 0
0.8 0.8 0
0.8 0.2 0
0.2 0.2 0
0.3333333339476993 0.0 0
0.6666666668798855 0.0 0
0.9999999999999999 0.3333333339476993 0
0.9999999999999999 0.6666666668798855 0
0.666666665875199 1.0 0
0.3333333324876557 0.9999999999999999 0
0.0 0.666666665875199 0
0.0 0.3333333324876557 0
0.500000000384892 0.8000000000000002 0
0.8 0.499999999105533 0
0.4999999991055331 0.2 0
0.2 0.500000000384892 0
POLYGONS 20 80
3 16 12 13
3 15 19 14
3 9 18 8
3 10 11 17
3 14 4 3
3 8 7 0
3 5 2 12
3 1 10 6
3 9 1 6
3 11 2 5
3 0 7 15
3 4 13 3
3 17 11 5
3 9 6 18
3 4 16 13
3 7 19 15
3 19 4 14
3 5 12 16
3 8 18 7
3 6 10 17
CELL_DATA 20
SCALARS maxflow double 1
LOOKUP_TABLE default
850.0000000000009 850.0000000000001 850.0 850.0000000000006 850.0 850.0 850.0000000000002 850.0000000000005 850.0 850.0000000000003 850.0 850.0000000000003 850.0000000000005 849.9999999999998 850.0000000000009 850.0 850.0 850.0000000000005 850.0 850.0000000000007
VECTORS flow float
-2.8421709430404007e-13 850.0000000000009 0
-850.0000000000001 0.0 0
0.0 -850.0 0
850.0000000000006 0.0 0
-850.0 0.0 0
0.0 -850.0 0
4.263256414560601e-14 850.0000000000002 0
850.0000000000005 2.9709568076353964e-13 0
0.0 -850.0 0
850.0000000000003 -2.544631174613954e-13 0
-850.0 0.0 0
2.4158453015843406e-13 850.0000000000003 0
850.0000000000005 0.0 0
1.1368683772161603e-13 -849.9999999999998 0
-2.7814787518347104e-13 850.0000000000009 0
-850.0 0.0 0
-850.0 0.0 0
2.2737367544323206e-13 850.0000000000005 0
2.2737367544323206e-13 -850.0 0
850.0000000000007 0.0 0
POINT_DATA 20
SCALARS temperature float 1
LOOKUP_TABLE default
20.0
20.0
20.0
20.0
120.0
120.0
120.0
120.0
20.0
20.0
20.0
20.0
20.0
20.0
20.0
20.0
120.0
120.0
120.0
120.0