# vtk DataFile Version 2.0
Really cool data
ASCII
DATASET POLYDATA
POINTS 32 float
0.0 0.0 0
1.0 0.0 0
1.0 1.0 0
0.0 1.0 0
0.3 0.7 0
0.7 0.7 0
0.7 0.2999999999999999 0
0.3 0.2999999999999999 0
0.3333333339476993 0.0 0
0.6666666668798855 0.0 0
0.9999999999999999 0.3333333339476993 0
0.9999999999999999 0.6666666668798855 0
0.666666665875199 1.0 0
0.3333333324876557 0.9999999999999999 0
0.0 0.666666665875199 0
0.0 0.3333333324876557 0
0.5000000004336809 0.7 0
0.7 0.4999999994795828 0
0.4999999993061104 0.2999999999999999 0
0.3 0.5000000004228388 0
0.1987654321159294 0.198765432009385 0
0.1987654320193576 0.8012345678318656 0
0.8012345678610111 0.1987654321563195 0
0.8012345678085415 0.8012345678681048 0
0.1595532039708514 0.4236625513707029 0
0.5763374484303684 0.1595532040136403 0
0.423662551375375 0.8404467960228331 0
0.8404467959837825 0.5763374484869717 0
0.3816872427600215 0.191663727204605 0
0.8083362727689587 0.3816872428141146 0
0.6183127570985593 0.8083362727781875 0
0.1916637271980418 0.6183127571001212 0
POLYGONS 44 176
3 10 27 29
3 8 25 28
3 14 24 31
3 12 26 30
3 14 15 24
3 12 13 26
3 8 9 25
3 10 11 27
3 3 14 21
3 0 8 20
3 2 12 23
3 1 10 22
3 20 7 24
3 22 6 25
3 21 4 26
3 23 5 27
3 9 1 22
3 11 2 23
3 15 0 20
3 13 3 21
3 9 22 25
3 11 23 27
3 13 21 26
3 15 20 24
3 7 20 28
3 4 21 31
3 6 22 29
3 5 23 30
3 6 18 25
3 7 19 24
3 5 17 27
3 4 16 26
3 18 7 28
3 17 6 29
3 16 5 30
3 19 4 31
3 25 18 28
3 27 17 29
3 24 19 31
3 26 16 30
3 20 8 28
3 21 14 31
3 22 10 29
3 23 12 30
CELL_DATA 44
SCALARS maxflow double 1
LOOKUP_TABLE default
528.9450223223266 528.9450223019846 528.9450223621755 528.945022355369 538.3880546110368 538.3880546111903 538.3880546225246 538.3880546054487 334.4805207840918 334.4805206735213 334.4805208469089 334.48052077882187 828.4394652332013 828.4394653576082 828.4394653492383 828.4394654228199 334.48052074965807 334.4805207466766 334.4805204942295 334.4805205337319 474.76189443483776 474.76189446595373 474.7618939572269 474.76189395768034 829.7793247336203 829.7793247764648 829.7793250636043 829.7793250574383 598.7923063084559 598.7923063031028 598.7923063289626 598.7923063056446 630.6888533641775 630.6888533610293 630.6888533069625 630.6888532747944 609.7037905596586 609.7037905520643 609.7037905083245 609.70379052129 521.793715973399 521.7937160243562 521.793715938831 521.7937160313774
VECTORS flow float
528.908400216111 -6.224212432175818 0
-6.224212458296165 -528.9084001954601 0
-528.9084002562397 6.224212408617859 0
6.224212413592454 528.9084002493743 0
-538.3880546110368 0.0 0
-1.9345073892379626e-13 538.3880546111903 0
0.0 -538.3880546225246 0
538.3880546054487 0.0 0
-334.4805207840918 0.0 0
0.0 -334.4805206735213 0
0.0 334.4805208469089 0
334.48052077882187 1.2574488797997415e-13 0
-797.2035273360281 -225.3408164511423 0
225.34081623131635 -797.2035275274463 0
-225.3408165385115 797.2035274319154 0
797.2035275625431 225.3408163468955 0
0.0 -334.48052074965807 0
334.4805207466766 -8.311232422666187e-14 0
-334.4805204942295 0.0 0
1.1153403391230194e-13 334.4805205337319 0
164.02393676672716 -445.5277820460815 0
445.5277820616563 164.0239368144866 0
-164.02393689758458 445.5277814889554 0
-445.5277814885263 -164.02393690006267 0
-223.4047881775702 -799.1395550057061 0
-799.1395550892313 223.4047880379277 0
799.1395552961048 -223.4047883644273 0
223.4047882501976 799.1395553216361 0
0.0 -598.7923063084559 0
-598.7923063031028 0.0 0
598.7923063289626 0.0 0
0.0 598.7923063056446 0
0.0 -630.6888533641775 0
630.6888533610293 0.0 0
0.0 630.6888533069625 0
-630.6888532747944 0.0 0
-19.501184795175618 -609.3918411124328 0
609.3918411055058 -19.501184774199714 0
-609.3918410628941 19.501184738247957 0
19.50118475405418 609.3918410753604 0
-210.9085987296819 -477.26957268530134 0
-477.26957281218915 210.90859856861448 0
477.2695726503249 -210.90859872330896 0
210.90859861370507 477.2695727999395 0
POINT_DATA 32
SCALARS temperature float 1
LOOKUP_TABLE default
20.0
20.0
20.0
20.0
120.0
120.0
120.0
120.0
20.0
20.0
20.0
20.0
20.0
20.0
20.0
20.0
120.0
120.0
120.0
120.0
59.107744229645
59.10774424453514
59.10774426745681
59.107744274021904
70.53031711342625
70.53031712805563
70.53031711544075
70.53031712726916
79.80795313701393
79.80795314702219
79.80795314704386
79.8079531402751